<?xml version="1.0" encoding="UTF-8"?>

<!-- generated on 2025-02-12 17:19:03 by Eclipse SUMO sumo Version v1_21_0+1021-4606c0d7274
<sumoConfiguration xmlns:xsi="http://www.w3.org/2001/XMLSchema-instance" xsi:noNamespaceSchemaLocation="http://sumo.dlr.de/xsd/sumoConfiguration.xsd">

    <input>
        <net-file value="/Users/dhrishajgarg/sumo/tools/2025-02-12-17-18-50/osm.net.xml.gz"/>
        <route-files value="/Users/dhrishajgarg/sumo/tools/2025-02-12-17-18-50/trips.trips.xml"/>
        <additional-files value="/Users/dhrishajgarg/sumo/tools/2025-02-12-17-18-50/osm_stops.add.xml"/>
    </input>

    <output>
        <vehroute-output value="/Users/dhrishajgarg/sumo/tools/2025-02-12-17-18-50/vehroutes.xml"/>
        <stop-output value="/Users/dhrishajgarg/sumo/tools/2025-02-12-17-18-50/stopinfos.xml"/>
    </output>

    <time>
        <begin value="0.0"/>
    </time>

    <processing>
        <ignore-route-errors value="true"/>
    </processing>

    <routing>
        <device.rerouting.adaptation-interval value="0"/>
    </routing>

    <report>
        <aggregate-warnings value="5"/>
        <error-log value="/Users/dhrishajgarg/sumo/tools/2025-02-12-17-18-50/trips.trips.xml.errorlog"/>
        <no-step-log value="true"/>
    </report>

</sumoConfiguration>
-->

<routes xmlns:xsi="http://www.w3.org/2001/XMLSchema-instance" xsi:noNamespaceSchemaLocation="http://sumo.dlr.de/xsd/routes_file.xsd">
    <vehicle id="0_bus_1:0" type="pt_bus" depart="15.00" departLane="0" arrival="316.00">
        <route edges="382417140#0 1347280388 1347280387#0 1347280387#1 416766496#0 416766496#1 416766496#4 416766496#5 416766496#6 416766505#0 416768135#0 416768149#0 416768149#1 416768140 172946090#1 172946090#2 172946090#4 172946090#5 172946090#6 1346555803 1067489910 828477290#0 1067489911#1 1067489911#3 169783428#1 169783428#2 -290431847#1 -290431847#0 144668571#0 1190758972#0 69233722#1 69233722#2 69233722#4 143640441#1 143640441#3 1190805685#2 10150309#1 1190765741 -1190765741 -10150309#2"/>
        <stop busStop="10028415195" duration="30.00"/>
    </vehicle>

    <vehicle id="3_bus_Brown:0" type="pt_bus" depart="165.00" departLane="0" arrival="367.00">
        <route edges="-1086822701#1 -829341691#6 -829341691#5 -829341691#4 -829341691#2 -829341691#1 -829341689#5 -829341689#3 -829341689#2 -829341689#1 -829341689#0 -1086822702 589711307#1 589711307#2 589711307#3 589711307#4 589711307#5 589711307#6 589711307#7 589711307#8 589711307#9 -589711307#9 -589711307#8 -589711307#7 -589711307#6 -589711307#5 -589711307#4 -589711307#3 -589711307#2 -589711307#1 1086822702 829341689#0 829341689#1 829341689#2 829341689#3 829341689#4 829341691#0 829341691#2 829341691#4 829341691#5 829341691#6 1086822701#0"/>
        <stop busStop="-6459176502" duration="30.00"/>
    </vehicle>

    <vehicle id="1_bus_1:1" type="pt_bus" depart="52.00" departLane="0" arrival="422.00">
        <route edges="288352347#1 288352347#2 288352347#4 1030759148#0 290431848#1 144668573#2 828456094 828456095#0 144668572#1 290431847#0 290431847#1 -1190533992#0 -169783428#1 -169783428#0 -1067489911#2 -828477290#1 -1067489910 -1346555803 -172946090#6 -172946090#5 -172946090#4 -172946090#3 -172946090#1 -416768128 -416768149#2 -416768149#0 -416768135#1 -416766505#0 -416766496#7 -416766496#5 -416766496#4 -416766496#2 -416766496#0 -1347280387#2 -1347280387#0 -1347280388 -382417140#1"/>
        <stop busStop="-10028415194" duration="30.00"/>
        <stop busStop="-10028415192" duration="30.00"/>
    </vehicle>

    <vehicle id="2_light_rail_703:0" type="pt_light_rail" depart="133.00" departLane="0" arrival="495.00">
        <route edges="145012014#0 145012014#2 145012014#3 145012014#4 145012014#6 145012014#7 145012014#8 145012014#9 145012014#10 145012014#11 145012014#12 145012014#13 145012014#14 145012014#15 145012014#16 145012014#18 145012014#19 145012014#20 145012014#21 145012014#22 145012014#23 145012014#25 145012014#26 405168455#0 405168455#1 405168455#4 405168455#5 405168455#6 254604695#0 254604695#1 254604695#2 254604695#3 254604695#4 254604695#5 254604695#6 254604695#7 254604695#8"/>
        <stop busStop="1584802910" duration="30.00"/>
        <stop busStop="1584802892" duration="30.00"/>
        <stop busStop="5919129374" duration="30.00"/>
    </vehicle>

    <vehicle id="4_light_rail_703:1" type="pt_light_rail" depart="253.00" departLane="0" arrival="570.00">
        <route edges="-348043138#8 -348043138#7 -348043138#6 -348043138#5 -348043138#4 -348043138#3 -348043138#2 -348043138#1 -348043138#0 -145012013#6 -145012013#5 -405168455#4 -405168455#1 -254604495#0 1025530504#0 1025530504#1 1025530504#3 1025530504#4 1025530504#5 1025530504#6 1025530504#7 1025530504#8 1025530504#10 1025530504#11 1025530504#12 145012015#0 145012015#1 145012015#2 145012015#3 145012015#4 145012015#5 145012015#6 145012015#7 145012015#9 145012015#10 145012015#11 145012015#13"/>
        <stop busStop="-5919129373" duration="30.00"/>
        <stop busStop="1584813022" duration="30.00"/>
        <stop busStop="1584813024" duration="30.00"/>
    </vehicle>

    <vehicle id="6_light_rail_701:0" type="pt_light_rail" depart="406.00" departLane="0" arrival="1014.00">
        <route edges="348043138#1 106345198#6 106345198#7 106345198#8 106345198#9 106345198#10 106345198#11 106345198#12 106345198#13 106345198#14 106345198#16 106345198#17 106345198#18 106345198#19 106345198#22 106345198#23 106345198#24 106345198#25 106345198#26 106345198#27 106345198#28 106345198#29 106345198#30 106345198#31 106345198#32 106345198#33 106345198#35 106345198#36"/>
        <stop busStop="5919129373" duration="30.00"/>
        <stop busStop="1226595410" duration="30.00"/>
        <stop busStop="1226596243" duration="30.00"/>
        <stop busStop="5919129380" duration="30.00"/>
        <stop busStop="1226596499" duration="30.00"/>
    </vehicle>

    <vehicle id="7_light_rail_704:1" type="pt_light_rail" depart="738.00" departLane="0" arrival="1355.00">
        <route edges="348043138#1 106345198#6 106345198#7 106345198#8 106345198#9 106345198#10 106345198#11 106345198#12 106345198#13 106345198#14 106345198#16 106345198#17 106345198#18 106345198#19 106345198#22 106345198#23 106345198#24 106345198#25 106345198#26 106345198#27 106345198#28 106345198#29 106345198#30 106345198#31 106345198#32 106345198#33 106345198#35 106345198#36"/>
        <stop busStop="5919129373" duration="30.00"/>
        <stop busStop="1226595410" duration="30.00"/>
        <stop busStop="1226596243" duration="30.00"/>
        <stop busStop="5919129380" duration="30.00"/>
        <stop busStop="1226596499" duration="30.00"/>
    </vehicle>

    <vehicle id="5_light_rail_704:0" type="pt_light_rail" depart="383.00" departLane="0" arrival="1715.00">
        <route edges="283890171#37 283890171#36 283890171#26 283890171#17 283890171#6 254604695#1"/>
        <stop busStop="5919129379" duration="30.00"/>
        <stop busStop="5919129378" duration="30.00"/>
        <stop busStop="5919129375" duration="30.00"/>
        <stop busStop="5919129374" duration="30.00"/>
    </vehicle>

    <vehicle id="8_light_rail_701:1" type="pt_light_rail" depart="684.00" departLane="0" arrival="2343.00">
        <route edges="283890171#37 283890171#36 283890171#26 283890171#17 283890171#6 254604695#1"/>
        <stop busStop="5919129381" duration="30.00"/>
        <stop busStop="5919129379" duration="30.00"/>
        <stop busStop="5919129378" duration="30.00"/>
        <stop busStop="5919129375" duration="30.00"/>
        <stop busStop="5919129374" duration="30.00"/>
    </vehicle>

</routes>
